
#(C) 2017 by FIZ Karlsruhe - Leibniz Institute for Information Infrastructure.  All rights reserved.
data_16048-ICSD
_database_code_ICSD 16048
_audit_creation_date 1980-01-01
_audit_update_record 2007-08-01
_chemical_name_systematic 'Diytterbium disilicate'
_chemical_formula_structural 'Yb2 (Si2 O7)'
_chemical_formula_sum 'O7 Si2 Yb2'
_chemical_name_structure_type Sc2Si2O7
_chemical_name_mineral Keiviite-(Yb)
_exptl_crystal_density_diffrn 6.15
_publ_section_title 'The crystal structures of the rare earth pyrosilicates'
loop_
_citation_id
_citation_journal_full
_citation_year
_citation_journal_volume
_citation_page_first
_citation_page_last
_citation_journal_id_ASTM
primary 'Acta Crystallographica B (24,1968-38,1982)' 1970 26 484 492 ACBCAR
loop_
_publ_author_name
'Smolin, Yu.I.'
'Shepelev, Yu.F.'
_cell_length_a 6.802(5)
_cell_length_b 8.875(10)
_cell_length_c 4.703(5)
_cell_angle_alpha 90.
_cell_angle_beta 102.12(17)
_cell_angle_gamma 90.
_cell_volume 277.58
_cell_formula_units_Z 2
_symmetry_space_group_name_H-M 'C 1 2/m 1'
_symmetry_Int_Tables_number 12
_refine_ls_R_factor_all 0.054
loop_
_symmetry_equiv_pos_site_id
_symmetry_equiv_pos_as_xyz
1 '-x, y, -z'
2 '-x, -y, -z'
3 'x, -y, z'
4 'x, y, z'
5 '-x+1/2, y+1/2, -z'
6 '-x+1/2, -y+1/2, -z'
7 'x+1/2, -y+1/2, z'
8 'x+1/2, y+1/2, z'
loop_
_atom_type_symbol
_atom_type_oxidation_number
Yb3+ 3
Si4+ 4
O2- -2
loop_
_atom_site_label
_atom_site_type_symbol
_atom_site_symmetry_multiplicity
_atom_site_Wyckoff_symbol
_atom_site_fract_x
_atom_site_fract_y
_atom_site_fract_z
_atom_site_B_iso_or_equiv
_atom_site_occupancy
_atom_site_attached_hydrogens
Yb1 Yb3+ 4 g 0.5 0.80687(2) 0 0.25 1. 0
Si1 Si4+ 4 i 0.7189(3) 0.5 0.4125(6) 0.37 1. 0
O1 O2- 2 c 0.5 0.5 0.5 1.02 1. 0
O2 O2- 4 i 0.8831(5) 0.5 0.7151(15) 0.5 1. 0
O3 O2- 8 j 0.7361(5) 0.6504(4) 0.2197(11) 0.54 1. 0
#End of TTdata_16048-ICSD